##File Type: Far field
##File Format: 4
##Source: infdipole
##Date: 2018-03-17 10:09:03  
** File exported by FEKO kernel version 14.0.410-508

#Configuration Name: StandardConfiguration1
#Request Name: Farfield1
#Frequency:   1.00000000E+009
#Coordinate System: Spherical
#No. of Theta Samples: 37
#No. of Phi Samples: 73
#Result Type: Directivity
#No. of Header Lines: 1
#       "Theta"             "Phi"           "Re(Etheta)"       "Im(Etheta)"        "Re(Ephi)"         "Im(Ephi)"   "Directivity(Theta)" "Directivity(Phi)" "Directivity(Total)"
    0.00000000E+000    0.00000000E+000    1.49389326E+000   -4.90715266E-001    1.49760489E-005   -1.20873379E-005    6.54199453E+000   -9.17028580E+001    6.54199453E+000
    5.00000000E+000    0.00000000E+000    1.48043950E+000   -4.89627311E-001    1.54046550E-005   -1.93944622E-005    6.46922741E+000   -8.95116195E+001    6.46922741E+000
    1.00000000E+001    0.00000000E+000    1.44091171E+000   -4.87259727E-001    1.08411872E-005   -2.29540953E-005    6.25357292E+000   -8.92976986E+001    6.25357292E+000
    1.50000000E+001    0.00000000E+000    1.37693898E+000   -4.83287596E-001    4.10487996E-006   -2.13085672E-005    5.89343222E+000   -9.06600674E+001    5.89343223E+000
    2.00000000E+001    0.00000000E+000    1.29128218E+000   -4.76951674E-001   -1.29722035E-006   -1.55737742E-005    5.38644487E+000   -9.35114959E+001    5.38644487E+000
    2.50000000E+001    0.00000000E+000    1.18779217E+000   -4.67263703E-001   -3.06841406E-006   -9.06619556E-006    4.73030462E+000   -9.77699216E+001    4.73030462E+000
    3.00000000E+001    0.00000000E+000    1.07116472E+000   -4.53327252E-001   -1.29625634E-006   -5.76231794E-006    3.92325418E+000   -1.01963065E+002    3.92325418E+000
    3.50000000E+001    0.00000000E+000    9.46488509E-001   -4.34603877E-001    1.65158969E-006   -8.44437138E-006    2.96377954E+000   -9.86950211E+001    2.96377954E+000
    4.00000000E+001    0.00000000E+000    8.18717447E-001   -4.10989386E-001    2.31780877E-006   -1.74639191E-005    1.84930822E+000   -9.24707337E+001    1.84930822E+000
    4.50000000E+001    0.00000000E+000    6.92252559E-001   -3.82695101E-001   -2.28438351E-006   -3.06130500E-005    5.74046334E-001   -8.76471532E+001    5.74046340E-001
    5.00000000E+001    0.00000000E+000    5.70750340E-001   -3.50054704E-001   -1.35010803E-005   -4.39823341E-005   -8.73769401E-001   -8.41327569E+001   -8.73769381E-001
    5.50000000E+001    0.00000000E+000    4.57137415E-001   -3.13405880E-001   -3.06645914E-005   -5.32835833E-005   -2.51521916E+000   -8.16151065E+001   -2.51521911E+000
    6.00000000E+001    0.00000000E+000    3.53708700E-001   -2.73115965E-001   -5.14739786E-005   -5.50799483E-005   -4.38557311E+000   -7.98433408E+001   -4.38557299E+000
    6.50000000E+001    0.00000000E+000    2.62184852E-001   -2.29704030E-001   -7.28024310E-005   -4.75906723E-005   -6.54346535E+000   -7.86012738E+001   -6.54346508E+000
    7.00000000E+001    0.00000000E+000    1.83687544E-001   -1.83947895E-001   -9.15659196E-005   -3.10036822E-005   -9.09135143E+000   -7.76833543E+001   -9.09135083E+000
    7.50000000E+001    0.00000000E+000    1.18682807E-001   -1.36890229E-001   -1.05403303E-004   -7.38100588E-006   -1.22274141E+001   -7.69110723E+001   -1.22274126E+001
    8.00000000E+001    0.00000000E+000    6.69757482E-002   -8.97388167E-002   -1.13055957E-004    1.97367765E-005   -1.64068392E+001   -7.61931510E+001   -1.64068346E+001
    8.50000000E+001    0.00000000E+000    2.78027368E-002   -4.37253277E-002   -1.14425774E-004    4.59545205E-005   -2.31001256E+001   -7.55695152E+001   -2.31001010E+001
    9.00000000E+001    0.00000000E+000    1.58355620E-017   -2.96293421E-017   -1.10344026E-004    6.68139975E-005   -3.26863758E+002   -7.51778902E+001   -7.51778902E+001
    9.50000000E+001    0.00000000E+000   -1.78170123E-002    4.03999981E-002   -1.02137429E-004    7.86580006E-005   -2.44899330E+001   -7.51833168E+001   -2.44898960E+001
    1.00000000E+002    0.00000000E+000   -2.71259378E-002    7.65257316E-002   -9.11402946E-005    7.94183529E-005   -1.91992264E+001   -7.57417611E+001   -1.91992167E+001
    1.05000000E+002    0.00000000E+000   -2.94444872E-002    1.07484874E-001   -7.83392838E-005    6.91448114E-005   -1.64481935E+001   -7.70079509E+001   -1.64481897E+001
    1.10000000E+002    0.00000000E+000   -2.63307937E-002    1.32448552E-001   -6.43032542E-005    5.01041256E-005   -1.47801220E+001   -7.91642343E+001   -1.47801204E+001
    1.15000000E+002    0.00000000E+000   -1.93925935E-002    1.50711679E-001   -4.94285473E-005    2.63475919E-005   -1.37551461E+001   -8.24237341E+001   -1.37551456E+001
    1.20000000E+002    0.00000000E+000   -1.02651708E-002    1.61788323E-001   -3.43587834E-005    2.77035206E-006   -1.31930094E+001   -8.66405025E+001   -1.31930092E+001
    1.25000000E+002    0.00000000E+000   -5.39768257E-004    1.65505638E-001   -2.03042976E-005   -1.61487524E-005   -1.30130990E+001   -8.91089490E+001   -1.30130989E+001
    1.30000000E+002    0.00000000E+000    8.35209512E-003    1.62063603E-001   -8.98308226E-006   -2.75747177E-005   -1.31841719E+001   -8.81411270E+001   -1.31841717E+001
    1.35000000E+002    0.00000000E+000    1.52764198E-002    1.52047939E-001   -2.07577322E-006   -3.10750879E-005   -1.37061705E+001   -8.75218184E+001   -1.37061703E+001
    1.40000000E+002    0.00000000E+000    1.95254608E-002    1.36406952E-001   -3.79085157E-007   -2.85546175E-005   -1.46045859E+001   -8.82751087E+001   -1.46045857E+001
    1.45000000E+002    0.00000000E+000    2.09010699E-002    1.16415171E-001   -3.10484020E-006   -2.32932957E-005   -1.59314267E+001   -8.99682982E+001   -1.59314265E+001
    1.50000000E+002    0.00000000E+000    1.97164845E-002    9.36381853E-002   -7.82210726E-006   -1.84244139E-005   -1.77719403E+001   -9.13618104E+001   -1.77719401E+001
    1.55000000E+002    0.00000000E+000    1.66939201E-002    6.98876205E-002   -1.12771736E-005   -1.55300453E-005   -2.02604080E+001   -9.17267123E+001   -2.02604077E+001
    1.60000000E+002    0.00000000E+000    1.27687134E-002    4.71311473E-002   -1.08338570E-005   -1.40727591E-005   -2.36156371E+001   -9.24005775E+001   -2.36156365E+001
    1.65000000E+002    0.00000000E+000    8.85587742E-003    2.73249300E-002   -5.82584720E-006   -1.20135365E-005   -2.82244491E+001   -9.48787267E+001   -2.82244481E+001
    1.70000000E+002    0.00000000E+000    5.66461909E-003    1.21764518E-002    1.97885240E-006   -7.32145265E-006   -3.48281459E+001   -9.97912481E+001   -3.48281446E+001
    1.75000000E+002    0.00000000E+000    3.63010229E-003    2.90482546E-003    9.19111527E-006    4.79538900E-007   -4.40417173E+001   -9.81102307E+001   -4.40417003E+001
    1.80000000E+002    0.00000000E+000    2.96491277E-003    9.78207357E-005    1.25519951E-005    9.67661377E-006   -4.79444378E+001   -9.33893874E+001   -4.79443138E+001
    0.00000000E+000    5.00000000E+000    1.48820985E+000   -4.88848999E-001   -1.30186458E-001    4.27566121E-002    6.50888775E+000   -1.46532219E+001    6.54199453E+000
    5.00000000E+000    5.00000000E+000    1.47481127E+000   -4.87779408E-001   -1.29512930E-001    4.28049190E-002    6.43616682E+000   -1.46929035E+001    6.46952545E+000
    1.00000000E+001    5.00000000E+000    1.43544667E+000   -4.85452154E-001   -1.27532912E-001    4.30469544E-002    6.22064110E+000   -1.48083742E+001    6.25477414E+000
    1.50000000E+001    5.00000000E+000    1.37174374E+000   -4.81540395E-001   -1.24286944E-001    4.34729055E-002    5.86074896E+000   -1.49996270E+001    5.89622797E+000
    2.00000000E+001    5.00000000E+000    1.28645594E+000   -4.75288083E-001   -1.19854454E-001    4.40429857E-002    5.35418134E+000   -1.52662264E+001    5.39166723E+000
    2.50000000E+001    5.00000000E+000    1.18341632E+000   -4.65712197E-001   -1.14362147E-001    4.46965675E-002    4.69867139E+000   -1.56064004E+001    4.73896728E+000
    3.00000000E+001    5.00000000E+000    1.06729252E+000   -4.51917405E-001   -1.07981283E-001    4.53700346E-002    3.89246705E+000   -1.60163672E+001    3.93659287E+000
    3.50000000E+001    5.00000000E+000    9.43140992E-001   -4.33357794E-001   -1.00911350E-001    4.60134266E-002    2.93402162E+000   -1.64902313E+001    2.98332667E+000
    4.00000000E+001    5.00000000E+000    8.15887800E-001   -4.09914465E-001   -9.33559065E-002    4.65968047E-002    1.82071139E+000   -1.70204834E+001    1.87705500E+000
    4.50000000E+001    5.00000000E+000    6.89916059E-001   -3.81783464E-001   -8.55010842E-002    4.71039616E-002    5.46706469E-001   -1.75988282E+001    6.12764219E-001
    5.00000000E+001    5.00000000E+000    5.68873464E-001   -3.49289947E-001   -7.75053187E-002    4.75189527E-002   -8.99749575E-001   -1.82169066E+001   -8.19936901E-001
    5.50000000E+001    5.00000000E+000    4.55681427E-001   -3.12772456E-001   -6.95019000E-002    4.78146987E-002   -2.53968453E+000   -1.88665781E+001   -2.43966509E+000
    6.00000000E+001    5.00000000E+000    3.52628015E-001   -2.72604863E-001   -6.16087837E-002    4.79505226E-002   -4.40829831E+000   -1.95397389E+001   -4.27705964E+000
    6.50000000E+001    5.00000000E+000    2.61424653E-001   -2.29311516E-001   -5.39372398E-002    4.78791810E-002   -6.56418190E+000   -2.02279966E+001   -6.38127693E+000
    7.00000000E+001    5.00000000E+000    1.83185343E-001   -1.83669225E-001   -4.65934632E-002    4.75582142E-002   -9.10981485E+000   -2.09226838E+001   -8.83275674E+000
    7.50000000E+001    5.00000000E+000    1.18375125E-001   -1.36713598E-001   -3.96727630E-002    4.69587116E-002   -1.22434882E+001   -2.16155761E+001   -1.17685758E+001
    8.00000000E+001    5.00000000E+000    6.68069582E-002   -8.96440771E-002   -3.32505937E-002    4.60672154E-002   -1.64205684E+001   -2.23003479E+001   -1.54229365E+001
    8.50000000E+001    5.00000000E+000    2.77314354E-002   -4.36883699E-002   -2.73759793E-002    4.48811122E-002   -2.31117719E+001   -2.29744002E+001   -2.00322429E+001
    9.00000000E+001    5.00000000E+000    1.57917391E-017   -2.96087780E-017   -2.20708457E-002    4.34014453E-002   -3.26873791E+002   -2.36404378E+001   -2.36404378E+001
    9.50000000E+001    5.00000000E+000   -1.77606057E-002    4.03746698E-002   -1.73353281E-002    4.16278482E-002   -2.44989702E+001   -2.43071913E+001   -2.13917223E+001
    1.00000000E+002    5.00000000E+000   -2.70225359E-002    7.64758909E-002   -1.31564338E-002    3.95584387E-002   -1.92079479E+001   -2.49889987E+001   -1.81898692E+001
    1.05000000E+002    5.00000000E+000   -2.93024258E-002    1.07403542E-001   -9.51664451E-003    3.71945200E-002   -1.64572325E+001   -2.57044296E+001   -1.59692152E+001
    1.10000000E+002    5.00000000E+000   -2.61587847E-002    1.32326728E-001   -6.39990342E-003    3.45475120E-002   -1.47899652E+001   -2.64745276E+001   -1.45048665E+001
    1.15000000E+002    5.00000000E+000   -1.91988652E-002    1.50544108E-001   -3.79394933E-003    3.16446766E-002   -1.37660610E+001   -2.73214062E+001   -1.35786287E+001
    1.20000000E+002    5.00000000E+000   -1.00561419E-002    1.61577030E-001   -1.68915827E-003    2.85310109E-002   -1.32050187E+001   -2.82678618E+001   -1.30717224E+001
    1.25000000E+002    5.00000000E+000   -3.19787428E-004    1.65260297E-001   -7.45934429E-005    2.52665757E-002   -1.30260142E+001   -2.93384355E+001   -1.29256648E+001
    1.30000000E+002    5.00000000E+000    8.57965428E-003    1.61799250E-001    1.06787814E-003    2.19206312E-002   -1.31976766E+001   -3.05620454E+001   -1.31187190E+001
    1.35000000E+002    5.00000000E+000    1.55075103E-002    1.51781529E-001    1.77024391E-003    1.85653991E-002   -1.37199229E+001   -3.19760078E+001   -1.36555132E+001
    1.40000000E+002    5.00000000E+000    1.97541689E-002    1.36154420E-001    2.08395198E-003    1.52723707E-002   -1.46182957E+001   -3.36311530E+001   -1.45641222E+001
    1.45000000E+002    5.00000000E+000    2.11193044E-002    1.16189918E-001    2.08197892E-003    1.21126305E-002   -1.59448664E+001   -3.55981807E+001   -1.58980809E+001
    1.50000000E+002    5.00000000E+000    1.99143637E-002    9.34507086E-002    1.85505984E-003    9.16014265E-003   -1.77848756E+001   -3.79767988E+001   -1.77435211E+001
    1.55000000E+002    5.00000000E+000    1.68606770E-002    6.97451070E-002    1.50148631E-003    6.49459332E-003   -2.02724569E+001   -4.09122271E+001   -2.02351371E+001
    1.60000000E+002    5.00000000E+000    1.28944384E-002    4.70361315E-002    1.11284632E-003    4.19975981E-003   -2.36260697E+001   -4.46302072E+001   -2.35917413E+001
    1.65000000E+002    5.00000000E+000    8.93454636E-003    2.72734611E-002    7.60839071E-004    2.35542195E-003   -2.82318802E+001   -4.95170012E+001   -2.81996946E+001
    1.70000000E+002    5.00000000E+000    5.69791559E-003    1.21575275E-002    4.90802339E-004    1.02490048E-003   -3.48301251E+001   -5.62791029E+001   -3.47991270E+001
    1.75000000E+002    5.00000000E+000    3.63001550E-003    2.90267468E-003    3.24684111E-004    2.44054674E-004   -4.40443543E+001   -6.52150234E+001   -4.40113125E+001
    1.80000000E+002    5.00000000E+000    2.95253640E-003    9.66051258E-005    2.70913406E-004    1.81654302E-005   -4.79808489E+001   -6.87133088E+001   -4.79443138E+001
    0.00000000E+000    1.00000000E+001    1.47120027E+000   -4.83262297E-001   -2.59397094E-001    8.51999079E-002    6.40904124E+000   -8.66516479E+000    6.54199453E+000
    5.00000000E+000    1.00000000E+001    1.45796924E+000   -4.82243395E-001   -2.58058187E-001    8.53102590E-002    6.33646608E+000   -8.70461022E+000    6.47042193E+000
    1.00000000E+001    1.00000000E+001    1.41909820E+000   -4.80037192E-001   -2.54116559E-001    8.58130194E-002    6.12136046E+000   -8.81975106E+000    6.25838673E+000
    1.50000000E+001    1.00000000E+001    1.35620347E+000   -4.76311710E-001   -2.47657376E-001    8.66860721E-002    5.76223992E+000   -9.01044672E+000    5.90459676E+000
    2.00000000E+001    1.00000000E+001    1.27201063E+000   -4.70315019E-001   -2.38843799E-001    8.78510311E-002    5.25690569E+000   -9.27605343E+000    5.40720322E+000
    2.50000000E+001    1.00000000E+001    1.17030045E+000   -4.61071589E-001   -2.27930542E-001    8.91906093E-002    4.60318573E+000   -9.61460382E+000    4.76458822E+000
    3.00000000E+001    1.00000000E+001    1.05566516E+000   -4.47684989E-001   -2.15256827E-001    9.05814606E-002    3.79936364E+000   -1.00222097E+001    3.97587454E+000
    3.50000000E+001    1.00000000E+001    9.33075584E-001   -4.29590842E-001   -2.01214729E-001    9.19244761E-002    2.84385762E+000   -1.04929854E+001    3.04074525E+000
    4.00000000E+001    1.00000000E+001    8.07380328E-001   -4.06636794E-001   -1.86203738E-001    9.31562973E-002    1.73397009E+000   -1.10195173E+001    1.95844283E+000
    4.50000000E+001    1.00000000E+001    6.82905829E-001   -3.78983652E-001   -1.70590646E-001    9.42379852E-002    4.63818844E-001   -1.15936266E+001    7.26154287E-001
    5.00000000E+001    1.00000000E+001    5.63263942E-001   -3.46934547E-001   -1.54690142E-001    9.51308792E-002   -9.78331702E-001   -1.22070362E+001   -6.62800868E-001
    5.50000000E+001    1.00000000E+001    4.51351100E-001   -3.10825281E-001   -1.38768879E-001    9.57763384E-002   -2.61341142E+000   -1.28516464E+001   -2.22061028E+000
    6.00000000E+001    1.00000000E+001    3.49430987E-001   -2.71039472E-001   -1.23062863E-001    9.60916668E-002   -4.47650283E+000   -1.35194067E+001   -3.96630974E+000
    6.50000000E+001    1.00000000E+001    2.59189509E-001   -2.28109690E-001   -1.07792929E-001    9.59831682E-002   -6.62615642E+000   -1.42020738E+001   -5.92671516E+000
    7.00000000E+001    1.00000000E+001    1.81721939E-001   -1.82808839E-001   -9.31676753E-002    9.53669840E-002   -9.16497834E+000   -1.48912861E+001   -8.13540275E+000
    7.50000000E+001    1.00000000E+001    1.17492207E-001   -1.36156543E-001   -7.93730816E-002    9.41852709E-002   -1.22915950E+001   -1.55792729E+001   -1.06211875E+001
    8.00000000E+001    1.00000000E+001    6.63346915E-002   -8.93340825E-002   -6.65564605E-002    9.24099643E-002   -1.64618896E+001   -1.62602143E+001   -1.33495814E+001
    8.50000000E+001    1.00000000E+001    2.75388149E-002   -4.35611538E-002   -5.48147311E-002    9.00346686E-002   -2.31471850E+001   -1.69319101E+001   -1.60010531E+001
    9.00000000E+001    1.00000000E+001    1.56777707E-017   -2.95342232E-017   -4.41934423E-002    8.70616815E-002   -3.26904739E+002   -1.75971977E+001   -1.75971977E+001
    9.50000000E+001    1.00000000E+001   -1.76182110E-002    4.02803467E-002   -3.46967621E-002    8.34926217E-002   -2.45272899E+001   -1.82645855E+001   -1.73428386E+001
    1.00000000E+002    1.00000000E+001   -2.67647636E-002    7.62933528E-002   -2.63037326E-002    7.93278629E-002   -1.92355974E+001   -1.89478637E+001   -1.60790481E+001
    1.05000000E+002    1.00000000E+001   -2.89457463E-002    1.07119132E-001   -1.89844990E-002    7.45746398E-002   -1.64859864E+001   -1.96648724E+001   -1.47805452E+001
    1.10000000E+002    1.00000000E+001   -2.57164970E-002    1.31921085E-001   -1.27116552E-002    6.92593055E-002   -1.48211390E+001   -2.04359526E+001   -1.37677917E+001
    1.15000000E+002    1.00000000E+001   -1.86833134E-002    1.50006728E-001   -7.46455745E-003    6.34376169E-002   -1.38003329E+001   -2.12827453E+001   -1.30868544E+001
    1.20000000E+002    1.00000000E+001   -9.47875782E-003    1.60915689E-001   -3.22675428E-003    5.71983140E-002   -1.32423901E+001   -2.22279371E+001   -1.27258023E+001
    1.25000000E+002    1.00000000E+001    3.08138467E-004    1.64502768E-001    2.21229568E-005    5.06586249E-002   -1.30659216E+001   -2.32963323E+001   -1.26724433E+001
    1.30000000E+002    1.00000000E+001    9.24465722E-003    1.60988254E-001    2.31815100E-003    4.39540870E-002   -1.32392197E+001   -2.45173525E+001   -1.29271344E+001
    1.35000000E+002    1.00000000E+001    1.61913012E-002    1.50966292E-001    3.72607212E-003    3.72276273E-002   -1.37621304E+001   -2.59288037E+001   -1.35061223E+001
    1.40000000E+002    1.00000000E+001    2.04323455E-002    1.35382697E-001    4.34975252E-003    3.06229903E-002   -1.46603252E+001   -2.75816983E+001   -1.44441561E+001
    1.45000000E+002    1.00000000E+001    2.17621493E-002    1.15502784E-001    4.33550120E-003    2.42849882E-002   -1.59860543E+001   -2.95463868E+001   -1.57988325E+001
    1.50000000E+002    1.00000000E+001    2.04893541E-002    9.28798824E-002    3.86422218E-003    1.83645858E-002   -1.78246018E+001   -3.19216281E+001   -1.76587341E+001
    1.55000000E+002    1.00000000E+001    1.73362733E-002    6.93107821E-002    3.13165261E-003    1.30227691E-002   -2.03098427E+001   -3.48511824E+001   -2.01598300E+001
    1.60000000E+002    1.00000000E+001    1.32454594E-002    4.67437439E-002    2.32132323E-003    8.42621926E-003   -2.36595086E+001   -3.85590523E+001   -2.35211853E+001
    1.65000000E+002    1.00000000E+001    9.14948286E-003    2.71103173E-002    1.57970139E-003    4.73160343E-003   -2.82582468E+001   -4.34302816E+001   -2.81282110E+001
    1.70000000E+002    1.00000000E+001    5.78674341E-003    1.20925638E-002    1.00365432E-003    2.06255077E-003   -3.48435216E+001   -5.01783568E+001   -3.47182017E+001
    1.75000000E+002    1.00000000E+001    3.62840740E-003    2.89214585E-003    6.44973067E-004    4.89892220E-004   -4.40589914E+001   -5.92204643E+001   -4.39286437E+001
    1.80000000E+002    1.00000000E+001    2.91768945E-003    9.46542925E-005    5.27213002E-004    2.65159967E-005   -4.80840514E+001   -6.29387070E+001   -4.79443138E+001
    0.00000000E+000    1.50000000E+001    1.44299396E+000   -4.73997677E-001   -3.86633562E-001    1.26994781E-001    6.24089674E+000   -5.19845195E+000    6.54199453E+000
    5.00000000E+000    1.50000000E+001    1.43004059E+000   -4.73058987E-001   -3.84644727E-001    1.27179265E-001    6.16856277E+000   -5.23762373E+000    6.47188975E+000
    1.00000000E+001    1.50000000E+001    1.39198641E+000   -4.71047457E-001   -3.78787212E-001    1.27972008E-001    5.95415492E+000   -5.35209569E+000    6.26429643E+000
    1.50000000E+001    1.50000000E+001    1.33042551E+000   -4.67623523E-001   -3.69192491E-001    1.29336717E-001    5.59630000E+000   -5.54160457E+000    5.91825606E+000
    2.00000000E+001    1.50000000E+001    1.24803444E+000   -4.62040607E-001   -3.56108186E-001    1.31156160E-001    5.09295983E+000   -5.80532442E+000    5.43248279E+000
    2.50000000E+001    1.50000000E+001    1.14850779E+000   -4.53333180E-001   -3.39914746E-001    1.33256925E-001    4.44210432E+000   -6.14111772E+000    4.80613135E+000
    3.00000000E+001    1.50000000E+001    1.03631701E+000   -4.40602606E-001   -3.21113450E-001    1.35455189E-001    3.64207784E+000   -6.54499835E+000    4.03932687E+000
    3.50000000E+001    1.50000000E+001    9.16296420E-001   -4.23257434E-001   -3.00280879E-001    1.37598893E-001    2.69125805E+000   -7.01107148E+000    3.13310487E+000
    4.00000000E+001    1.50000000E+001    7.93169143E-001   -4.01096080E-001   -2.78004913E-001    1.39584458E-001    1.58684432E+000   -7.53196884E+000    2.08868882E+000
    4.50000000E+001    1.50000000E+001    6.71166479E-001   -3.74225988E-001   -2.54828124E-001    1.41342620E-001    3.22868079E-001   -8.09955134E+000    9.06367960E-001
    5.00000000E+001    1.50000000E+001    5.53837390E-001   -3.42914091E-001   -2.31219262E-001    1.42806748E-001   -1.11240535E+000   -8.70553650E+000   -4.15520359E-001
    5.50000000E+001    1.50000000E+001    4.44035010E-001   -3.07486954E-001   -2.07576615E-001    1.43885751E-001   -2.73980872E+000   -9.34179601E+000   -1.88092587E+000
    6.00000000E+001    1.50000000E+001    3.43985018E-001   -2.68338134E-001   -1.84249983E-001    1.44457917E-001   -4.59430470E+000   -1.00003161E+001   -3.49513182E+000
    6.50000000E+001    1.50000000E+001    2.55336947E-001   -2.26010945E-001   -1.61561248E-001    1.44387174E-001   -6.73442910E+000   -1.06730735E+001   -5.26146518E+000
    7.00000000E+001    1.50000000E+001    1.79160674E-001   -1.81274847E-001   -1.39809412E-001    1.43549927E-001   -9.26299991E+000   -1.13521937E+001   -7.17286275E+000
    7.50000000E+001    1.50000000E+001    1.15919626E-001   -1.35130461E-001   -1.19258704E-001    1.41856480E-001   -1.23791371E+001   -1.20306521E+001   -9.19110021E+000
    8.00000000E+001    1.50000000E+001    6.54793876E-002   -8.87364214E-002   -1.00119216E-001    1.39257028E-001   -1.65394572E+001   -1.27035092E+001   -1.12007567E+001
    8.50000000E+001    1.50000000E+001    2.71858975E-002   -4.33019734E-002   -8.25327353E-002    1.35732662E-001   -2.32161227E+001   -1.33693666E+001   -1.29412829E+001
    9.00000000E+001    1.50000000E+001    1.54682842E-017   -2.93741796E-017   -6.65720463E-002    1.31280087E-001   -3.26967151E+002   -1.40315538E+001   -1.40315538E+001
    9.50000000E+001    1.50000000E+001   -1.73577778E-002    4.00719304E-002   -5.22541877E-002    1.25900640E-001   -2.45857756E+001   -1.46986001E+001   -1.42742945E+001
    1.00000000E+002    1.50000000E+001   -2.62978883E-002    7.58934663E-002   -3.95618444E-002    1.19600098E-001   -1.92928633E+001   -1.53838170E+001   -1.39023190E+001
    1.05000000E+002    1.50000000E+001   -2.83066452E-002    1.06520151E-001   -2.84648490E-002    1.12399075E-001   -1.65444216E+001   -1.61041807E+001   -1.33084252E+001
    1.10000000E+002    1.50000000E+001   -2.49320446E-002    1.31109265E-001   -1.89353420E-002    1.04348218E-001   -1.48824580E+001   -1.68789963E+001   -1.27566924E+001
    1.15000000E+002    1.50000000E+001   -1.77783636E-002    1.48981153E-001   -1.09534185E-002    9.55404647E-002   -1.38653655E+001   -1.77289427E+001   -1.23706765E+001
    1.20000000E+002    1.50000000E+001   -8.47753081E-003    1.59700256E-001   -4.50303233E-003    8.61144107E-002   -1.33110680E+001   -1.86760253E+001   -1.22026814E+001
    1.25000000E+002    1.50000000E+001    1.38096968E-003    1.63147926E-001    4.40281124E-004    7.62473065E-002   -1.31374588E+001   -1.97447661E+001   -1.22795301E+001
    1.30000000E+002    1.50000000E+001    1.03617025E-002    1.59563943E-001    3.92721389E-003    6.61410635E-002   -1.33124306E+001   -2.09646932E+001   -1.26242613E+001
    1.35000000E+002    1.50000000E+001    1.73198923E-002    1.49550642E-001    6.05406911E-003    5.60079136E-002   -1.38357723E+001   -2.23739638E+001   -1.32666590E+001
    1.40000000E+002    1.50000000E+001    2.15333078E-002    1.34051374E-001    6.97800857E-003    4.60623169E-002   -1.47333338E+001   -2.40239439E+001   -1.42499101E+001
    1.45000000E+002    1.50000000E+001    2.27907147E-002    1.14321674E-001    6.92127948E-003    3.65219716E-002   -1.60575702E+001   -2.59850795E+001   -1.56370031E+001
    1.50000000E+002    1.50000000E+001    2.13980850E-002    9.19004724E-002    6.15882445E-003    2.76147032E-002   -1.78937569E+001   -2.83557717E+001   -1.75198583E+001
    1.55000000E+002    1.50000000E+001    1.80800199E-002    6.85656807E-002    4.98867511E-003    1.95827097E-002   -2.03753277E+001   -3.12788692E+001   -2.00361999E+001
    1.60000000E+002    1.50000000E+001    1.37891343E-002    4.62408060E-002    3.69219376E-003    1.26748204E-002   -2.37189140E+001   -3.49768416E+001   -2.34054246E+001
    1.65000000E+002    1.50000000E+001    9.47895420E-003    2.68273487E-002    2.49773851E-003    7.12302600E-003   -2.83069256E+001   -3.98324665E+001   -2.80115479E+001
    1.70000000E+002    1.50000000E+001    5.92029031E-003    1.19774291E-002    1.56184680E-003    3.10958461E-003   -3.48728085E+001   -4.65583606E+001   -3.45877727E+001
    1.75000000E+002    1.50000000E+001    3.62254755E-003    2.87193970E-003    9.74200511E-004    7.39625788E-004   -4.40911753E+001   -5.56397573E+001   -4.37973089E+001
    1.80000000E+002    1.50000000E+001    2.86063712E-003    9.19830830E-005    7.79500188E-004    3.46647605E-005   -4.82556577E+001   -5.95444963E+001   -4.79443138E+001
    0.00000000E+000    2.00000000E+001    1.40380560E+000   -4.61125648E-001   -5.10927514E-001    1.67823147E-001    6.00174705E+000   -2.77724497E+000    6.54199453E+000
    5.00000000E+000    2.00000000E+001    1.39123620E+000   -4.60292230E-001   -5.08311466E-001    1.68098625E-001    5.92974279E+000   -2.81606804E+000    6.47388460E+000
    1.00000000E+001    2.00000000E+001    1.35431072E+000   -4.58537565E-001   -5.00605009E-001    1.69222411E-001    5.71628787E+000   -2.92959988E+000    6.27231695E+000
    1.50000000E+001    2.00000000E+001    1.29458890E+000   -4.55513226E-001   -4.87987506E-001    1.71141578E-001    5.36014620E+000   -3.11744197E+000    5.93674860E+000
    2.00000000E+001    2.00000000E+001    1.21467633E+000   -4.50479901E-001   -4.70791096E-001    1.73699605E-001    4.85947793E+000   -3.37857114E+000    5.46659178E+000
    2.50000000E+001    2.00000000E+001    1.11814852E+000   -4.42485217E-001   -4.49517960E-001    1.76667503E-001    4.21242988E+000   -3.71066689E+000    4.86195186E+000
    3.00000000E+001    2.00000000E+001    1.00931365E+000   -4.30628979E-001   -4.24822580E-001    1.79799919E-001    3.41742422E+000   -4.10963920E+000    4.12416752E+000
    3.50000000E+001    2.00000000E+001    8.92822421E-001   -4.14287603E-001   -3.97454092E-001    1.82886893E-001    2.47278825E+000   -4.56958758E+000    3.25586566E+000
    4.00000000E+001    2.00000000E+001    7.73227251E-001   -3.93198967E-001   -3.68177093E-001    1.85775570E-001    1.37558209E+000   -5.08320222E+000    2.26051099E+000
    4.50000000E+001    2.00000000E+001    6.54626831E-001   -3.67402195E-001   -3.37701446E-001    1.88355611E-001    1.19697386E-001   -5.64240519E+000    1.14174253E+000
    5.00000000E+001    2.00000000E+001    5.40480409E-001   -3.37113748E-001   -3.06645212E-001    1.90523691E-001   -1.30665788E+000   -6.23893834E+000   -9.69809410E-002
    5.50000000E+001    2.00000000E+001    4.33581204E-001   -3.02641087E-001   -2.75535240E-001    1.92152368E-001   -2.92427344E+000   -6.86468557E+000   -1.45181790E+000
    6.00000000E+001    2.00000000E+001    3.36107926E-001   -2.64383713E-001   -2.44830461E-001    1.93082017E-001   -4.76804087E+000   -7.51172786E+000   -2.91642648E+000
    6.50000000E+001    2.00000000E+001    2.49669676E-001   -2.22896506E-001   -2.14945314E-001    1.93137845E-001   -6.89653068E+000   -8.17234305E+000   -4.47745551E+000
    7.00000000E+001    2.00000000E+001    1.75310193E-001   -1.78948632E-001   -1.86257182E-001    1.92159170E-001   -9.41282936E+000   -8.83924681E+000   -6.10627571E+000
    7.50000000E+001    2.00000000E+001    1.13494751E-001   -1.33524768E-001   -1.59095772E-001    1.90023559E-001   -1.25166139E+001   -9.50627340E+000   -7.74537432E+000
    8.00000000E+001    2.00000000E+001    6.41258923E-002   -8.77624517E-002   -1.33724305E-001    1.86654859E-001   -1.66652924E+001   -1.01694637E+001   -9.29133996E+000
    8.50000000E+001    2.00000000E+001    2.66151270E-002   -4.28602352E-002   -1.10325996E-001    1.82015397E-001   -2.33319008E+001   -1.08282819E+001   -1.05908726E+001
    9.00000000E+001    2.00000000E+001    1.51250847E-017   -2.90905298E-017   -8.90047069E-002    1.76091474E-001   -3.27075207E+002   -1.14865520E+001   -1.14865520E+001
    9.50000000E+001    2.00000000E+001   -1.69303395E-002    3.96947370E-002   -6.98004261E-002    1.68883214E-001   -2.46888847E+001   -1.21527635E+001   -1.19170771E+001
    1.00000000E+002    2.00000000E+001   -2.55377964E-002    7.51730352E-002   -5.27134098E-002    1.60405498E-001   -1.93938148E+001   -1.28396380E+001   -1.19721373E+001
    1.05000000E+002    2.00000000E+001   -2.72816733E-002    1.05469474E-001   -3.77283098E-002    1.50699522E-001   -1.66455892E+001   -1.35631491E+001   -1.18261503E+001
    1.10000000E+002    2.00000000E+001   -2.36982928E-002    1.29738750E-001   -2.48310392E-002    1.39848689E-001   -1.49854682E+001   -1.43414300E+001   -1.16412216E+001